+ 0.1 8 4 cbr 800 ------- 2 8.0 3.0 0 0
- 0.1 8 4 cbr 800 ------- 2 8.0 3.0 0 0
r 0.1564 8 4 cbr 800 ------- 2 8.0 3.0 0 0
+ 0.1564 4 0 cbr 800 ------- 2 8.0 3.0 0 0
- 0.1564 4 0 cbr 800 ------- 2 8.0 3.0 0 0
+ 0.164 8 4 cbr 800 ------- 2 8.0 3.0 1 1
- 0.164 8 4 cbr 800 ------- 2 8.0 3.0 1 1
r 0.2128 4 0 cbr 800 ------- 2 8.0 3.0 0 0
+ 0.2128 0 1 cbr 800 ------- 2 8.0 3.0 0 0
- 0.2128 0 1 cbr 800 ------- 2 8.0 3.0 0 0
r 0.2204 8 4 cbr 800 ------- 2 8.0 3.0 1 1
+ 0.2204 4 0 cbr 800 ------- 2 8.0 3.0 1 1
- 0.2204 4 0 cbr 800 ------- 2 8.0 3.0 1 1
+ 0.228 8 4 cbr 800 ------- 2 8.0 3.0 2 2
- 0.228 8 4 cbr 800 ------- 2 8.0 3.0 2 2
r 0.2692 0 1 cbr 800 ------- 2 8.0 3.0 0 0
+ 0.2692 1 2 cbr 800 ------- 2 8.0 3.0 0 0
- 0.2692 1 2 cbr 800 ------- 2 8.0 3.0 0 0
r 0.2768 4 0 cbr 800 ------- 2 8.0 3.0 1 1
+ 0.2768 0 1 cbr 800 ------- 2 8.0 3.0 1 1
- 0.2768 0 1 cbr 800 ------- 2 8.0 3.0 1 1
r 0.2844 8 4 cbr 800 ------- 2 8.0 3.0 2 2
+ 0.2844 4 0 cbr 800 ------- 2 8.0 3.0 2 2
- 0.2844 4 0 cbr 800 ------- 2 8.0 3.0 2 2
+ 0.292 8 4 cbr 800 ------- 2 8.0 3.0 3 3
- 0.292 8 4 cbr 800 ------- 2 8.0 3.0 3 3
r 0.3256 1 2 cbr 800 ------- 2 8.0 3.0 0 0
+ 0.3256 2 3 cbr 800 ------- 2 8.0 3.0 0 0
- 0.3256 2 3 cbr 800 ------- 2 8.0 3.0 0 0
r 0.3332 0 1 cbr 800 ------- 2 8.0 3.0 1 1
+ 0.3332 1 2 cbr 800 ------- 2 8.0 3.0 1 1
- 0.3332 1 2 cbr 800 ------- 2 8.0 3.0 1 1
r 0.3408 4 0 cbr 800 ------- 2 8.0 3.0 2 2
+ 0.3408 0 1 cbr 800 ------- 2 8.0 3.0 2 2
- 0.3408 0 1 cbr 800 ------- 2 8.0 3.0 2 2
r 0.3484 8 4 cbr 800 ------- 2 8.0 3.0 3 3
+ 0.3484 4 0 cbr 800 ------- 2 8.0 3.0 3 3
- 0.3484 4 0 cbr 800 ------- 2 8.0 3.0 3 3
+ 0.356 8 4 cbr 800 ------- 2 8.0 3.0 4 4
- 0.356 8 4 cbr 800 ------- 2 8.0 3.0 4 4
r 0.382 2 3 cbr 800 ------- 2 8.0 3.0 0 0
r 0.3896 1 2 cbr 800 ------- 2 8.0 3.0 1 1
+ 0.3896 2 3 cbr 800 ------- 2 8.0 3.0 1 1
- 0.3896 2 3 cbr 800 ------- 2 8.0 3.0 1 1
r 0.3972 0 1 cbr 800 ------- 2 8.0 3.0 2 2
+ 0.3972 1 2 cbr 800 ------- 2 8.0 3.0 2 2
- 0.3972 1 2 cbr 800 ------- 2 8.0 3.0 2 2
r 0.4048 4 0 cbr 800 ------- 2 8.0 3.0 3 3
+ 0.4048 0 1 cbr 800 ------- 2 8.0 3.0 3 3
- 0.4048 0 1 cbr 800 ------- 2 8.0 3.0 3 3
r 0.4124 8 4 cbr 800 ------- 2 8.0 3.0 4 4
+ 0.4124 4 0 cbr 800 ------- 2 8.0 3.0 4 4
- 0.4124 4 0 cbr 800 ------- 2 8.0 3.0 4 4
+ 0.42 8 4 cbr 800 ------- 2 8.0 3.0 5 5
- 0.42 8 4 cbr 800 ------- 2 8.0 3.0 5 5
r 0.446 2 3 cbr 800 ------- 2 8.0 3.0 1 1
r 0.4536 1 2 cbr 800 ------- 2 8.0 3.0 2 2
+ 0.4536 2 3 cbr 800 ------- 2 8.0 3.0 2 2
- 0.4536 2 3 cbr 800 ------- 2 8.0 3.0 2 2
r 0.4612 0 1 cbr 800 ------- 2 8.0 3.0 3 3
+ 0.4612 1 2 cbr 800 ------- 2 8.0 3.0 3 3
- 0.4612 1 2 cbr 800 ------- 2 8.0 3.0 3 3
r 0.4688 4 0 cbr 800 ------- 2 8.0 3.0 4 4
+ 0.4688 0 1 cbr 800 ------- 2 8.0 3.0 4 4
- 0.4688 0 1 cbr 800 ------- 2 8.0 3.0 4 4
r 0.4764 8 4 cbr 800 ------- 2 8.0 3.0 5 5
+ 0.4764 4 0 cbr 800 ------- 2 8.0 3.0 5 5
- 0.4764 4 0 cbr 800 ------- 2 8.0 3.0 5 5
+ 0.484 8 4 cbr 800 ------- 2 8.0 3.0 6 6
- 0.484 8 4 cbr 800 ------- 2 8.0 3.0 6 6
r 0.51 2 3 cbr 800 ------- 2 8.0 3.0 2 2
r 0.5176 1 2 cbr 800 ------- 2 8.0 3.0 3 3
+ 0.5176 2 3 cbr 800 ------- 2 8.0 3.0 3 3
- 0.5176 2 3 cbr 800 ------- 2 8.0 3.0 3 3
r 0.5252 0 1 cbr 800 ------- 2 8.0 3.0 4 4
+ 0.5252 1 2 cbr 800 ------- 2 8.0 3.0 4 4
- 0.5252 1 2 cbr 800 ------- 2 8.0 3.0 4 4
r 0.5328 4 0 cbr 800 ------- 2 8.0 3.0 5 5
+ 0.5328 0 1 cbr 800 ------- 2 8.0 3.0 5 5
- 0.5328 0 1 cbr 800 ------- 2 8.0 3.0 5 5
r 0.5404 8 4 cbr 800 ------- 2 8.0 3.0 6 6
+ 0.5404 4 0 cbr 800 ------- 2 8.0 3.0 6 6
- 0.5404 4 0 cbr 800 ------- 2 8.0 3.0 6 6
+ 0.548 8 4 cbr 800 ------- 2 8.0 3.0 7 7
- 0.548 8 4 cbr 800 ------- 2 8.0 3.0 7 7
r 0.574 2 3 cbr 800 ------- 2 8.0 3.0 3 3
r 0.5816 1 2 cbr 800 ------- 2 8.0 3.0 4 4
+ 0.5816 2 3 cbr 800 ------- 2 8.0 3.0 4 4
- 0.5816 2 3 cbr 800 ------- 2 8.0 3.0 4 4
r 0.5892 0 1 cbr 800 ------- 2 8.0 3.0 5 5
+ 0.5892 1 2 cbr 800 ------- 2 8.0 3.0 5 5
- 0.5892 1 2 cbr 800 ------- 2 8.0 3.0 5 5
r 0.5968 4 0 cbr 800 ------- 2 8.0 3.0 6 6
+ 0.5968 0 1 cbr 800 ------- 2 8.0 3.0 6 6
- 0.5968 0 1 cbr 800 ------- 2 8.0 3.0 6 6
r 0.6044 8 4 cbr 800 ------- 2 8.0 3.0 7 7
+ 0.6044 4 0 cbr 800 ------- 2 8.0 3.0 7 7
- 0.6044 4 0 cbr 800 ------- 2 8.0 3.0 7 7
+ 0.612 8 4 cbr 800 ------- 2 8.0 3.0 8 8
- 0.612 8 4 cbr 800 ------- 2 8.0 3.0 8 8
r 0.638 2 3 cbr 800 ------- 2 8.0 3.0 4 4
r 0.6456 1 2 cbr 800 ------- 2 8.0 3.0 5 5
+ 0.6456 2 3 cbr 800 ------- 2 8.0 3.0 5 5
- 0.6456 2 3 cbr 800 ------- 2 8.0 3.0 5 5
r 0.6532 0 1 cbr 800 ------- 2 8.0 3.0 6 6
+ 0.6532 1 2 cbr 800 ------- 2 8.0 3.0 6 6
- 0.6532 1 2 cbr 800 ------- 2 8.0 3.0 6 6
r 0.6608 4 0 cbr 800 ------- 2 8.0 3.0 7 7
+ 0.6608 0 1 cbr 800 ------- 2 8.0 3.0 7 7
- 0.6608 0 1 cbr 800 ------- 2 8.0 3.0 7 7
r 0.6684 8 4 cbr 800 ------- 2 8.0 3.0 8 8
+ 0.6684 4 0 cbr 800 ------- 2 8.0 3.0 8 8
- 0.6684 4 0 cbr 800 ------- 2 8.0 3.0 8 8
+ 0.676 8 4 cbr 800 ------- 2 8.0 3.0 9 9
- 0.676 8 4 cbr 800 ------- 2 8.0 3.0 9 9
r 0.702 2 3 cbr 800 ------- 2 8.0 3.0 5 5
r 0.7096 1 2 cbr 800 ------- 2 8.0 3.0 6 6
+ 0.7096 2 3 cbr 800 ------- 2 8.0 3.0 6 6
- 0.7096 2 3 cbr 800 ------- 2 8.0 3.0 6 6
r 0.7172 0 1 cbr 800 ------- 2 8.0 3.0 7 7
+ 0.7172 1 2 cbr 800 ------- 2 8.0 3.0 7 7
- 0.7172 1 2 cbr 800 ------- 2 8.0 3.0 7 7
r 0.7248 4 0 cbr 800 ------- 2 8.0 3.0 8 8
+ 0.7248 0 1 cbr 800 ------- 2 8.0 3.0 8 8
- 0.7248 0 1 cbr 800 ------- 2 8.0 3.0 8 8
r 0.7324 8 4 cbr 800 ------- 2 8.0 3.0 9 9
+ 0.7324 4 0 cbr 800 ------- 2 8.0 3.0 9 9
- 0.7324 4 0 cbr 800 ------- 2 8.0 3.0 9 9
+ 0.74 8 4 cbr 800 ------- 2 8.0 3.0 10 10
- 0.74 8 4 cbr 800 ------- 2 8.0 3.0 10 10
r 0.766 2 3 cbr 800 ------- 2 8.0 3.0 6 6
r 0.7736 1 2 cbr 800 ------- 2 8.0 3.0 7 7
+ 0.7736 2 3 cbr 800 ------- 2 8.0 3.0 7 7
- 0.7736 2 3 cbr 800 ------- 2 8.0 3.0 7 7
r 0.7812 0 1 cbr 800 ------- 2 8.0 3.0 8 8
+ 0.7812 1 2 cbr 800 ------- 2 8.0 3.0 8 8
- 0.7812 1 2 cbr 800 ------- 2 8.0 3.0 8 8
r 0.7888 4 0 cbr 800 ------- 2 8.0 3.0 9 9
+ 0.7888 0 1 cbr 800 ------- 2 8.0 3.0 9 9
- 0.7888 0 1 cbr 800 ------- 2 8.0 3.0 9 9
r 0.7964 8 4 cbr 800 ------- 2 8.0 3.0 10 10
+ 0.7964 4 0 cbr 800 ------- 2 8.0 3.0 10 10
- 0.7964 4 0 cbr 800 ------- 2 8.0 3.0 10 10
+ 0.804 8 4 cbr 800 ------- 2 8.0 3.0 11 11
- 0.804 8 4 cbr 800 ------- 2 8.0 3.0 11 11
r 0.83 2 3 cbr 800 ------- 2 8.0 3.0 7 7
r 0.8376 1 2 cbr 800 ------- 2 8.0 3.0 8 8
+ 0.8376 2 3 cbr 800 ------- 2 8.0 3.0 8 8
- 0.8376 2 3 cbr 800 ------- 2 8.0 3.0 8 8
r 0.8452 0 1 cbr 800 ------- 2 8.0 3.0 9 9
+ 0.8452 1 2 cbr 800 ------- 2 8.0 3.0 9 9
- 0.8452 1 2 cbr 800 ------- 2 8.0 3.0 9 9
r 0.8528 4 0 cbr 800 ------- 2 8.0 3.0 10 10
+ 0.8528 0 1 cbr 800 ------- 2 8.0 3.0 10 10
- 0.8528 0 1 cbr 800 ------- 2 8.0 3.0 10 10
r 0.8604 8 4 cbr 800 ------- 2 8.0 3.0 11 11
+ 0.8604 4 0 cbr 800 ------- 2 8.0 3.0 11 11
- 0.8604 4 0 cbr 800 ------- 2 8.0 3.0 11 11
+ 0.868 8 4 cbr 800 ------- 2 8.0 3.0 12 12
- 0.868 8 4 cbr 800 ------- 2 8.0 3.0 12 12
r 0.894 2 3 cbr 800 ------- 2 8.0 3.0 8 8
r 0.9016 1 2 cbr 800 ------- 2 8.0 3.0 9 9
+ 0.9016 2 3 cbr 800 ------- 2 8.0 3.0 9 9
- 0.9016 2 3 cbr 800 ------- 2 8.0 3.0 9 9
r 0.9092 0 1 cbr 800 ------- 2 8.0 3.0 10 10
+ 0.9092 1 2 cbr 800 ------- 2 8.0 3.0 10 10
- 0.9092 1 2 cbr 800 ------- 2 8.0 3.0 10 10
r 0.9168 4 0 cbr 800 ------- 2 8.0 3.0 11 11
+ 0.9168 0 1 cbr 800 ------- 2 8.0 3.0 11 11
- 0.9168 0 1 cbr 800 ------- 2 8.0 3.0 11 11
r 0.9244 8 4 cbr 800 ------- 2 8.0 3.0 12 12
+ 0.9244 4 0 cbr 800 ------- 2 8.0 3.0 12 12
- 0.9244 4 0 cbr 800 ------- 2 8.0 3.0 12 12
+ 0.932 8 4 cbr 800 ------- 2 8.0 3.0 13 13
- 0.932 8 4 cbr 800 ------- 2 8.0 3.0 13 13
r 0.958 2 3 cbr 800 ------- 2 8.0 3.0 9 9
r 0.9656 1 2 cbr 800 ------- 2 8.0 3.0 10 10
+ 0.9656 2 3 cbr 800 ------- 2 8.0 3.0 10 10
- 0.9656 2 3 cbr 800 ------- 2 8.0 3.0 10 10
r 0.9732 0 1 cbr 800 ------- 2 8.0 3.0 11 11
+ 0.9732 1 2 cbr 800 ------- 2 8.0 3.0 11 11
- 0.9732 1 2 cbr 800 ------- 2 8.0 3.0 11 11
r 0.9808 4 0 cbr 800 ------- 2 8.0 3.0 12 12
+ 0.9808 0 1 cbr 800 ------- 2 8.0 3.0 12 12
- 0.9808 0 1 cbr 800 ------- 2 8.0 3.0 12 12
r 0.9884 8 4 cbr 800 ------- 2 8.0 3.0 13 13
+ 0.9884 4 0 cbr 800 ------- 2 8.0 3.0 13 13
- 0.9884 4 0 cbr 800 ------- 2 8.0 3.0 13 13
+ 0.996 8 4 cbr 800 ------- 2 8.0 3.0 14 14
- 0.996 8 4 cbr 800 ------- 2 8.0 3.0 14 14
+ 1 0 1 tcp 40 ------- 1 0.0 11.0 0 15
- 1 0 1 tcp 40 ------- 1 0.0 11.0 0 15
r 1.022 2 3 cbr 800 ------- 2 8.0 3.0 10 10
r 1.0296 1 2 cbr 800 ------- 2 8.0 3.0 11 11
+ 1.0296 2 3 cbr 800 ------- 2 8.0 3.0 11 11
- 1.0296 2 3 cbr 800 ------- 2 8.0 3.0 11 11
r 1.0372 0 1 cbr 800 ------- 2 8.0 3.0 12 12
+ 1.0372 1 2 cbr 800 ------- 2 8.0 3.0 12 12
- 1.0372 1 2 cbr 800 ------- 2 8.0 3.0 12 12
r 1.0448 4 0 cbr 800 ------- 2 8.0 3.0 13 13
+ 1.0448 0 1 cbr 800 ------- 2 8.0 3.0 13 13
- 1.0448 0 1 cbr 800 ------- 2 8.0 3.0 13 13
r 1.05032 0 1 tcp 40 ------- 1 0.0 11.0 0 15
+ 1.05032 1 2 tcp 40 ------- 1 0.0 11.0 0 15
- 1.05032 1 2 tcp 40 ------- 1 0.0 11.0 0 15
r 1.0524 8 4 cbr 800 ------- 2 8.0 3.0 14 14
+ 1.0524 4 0 cbr 800 ------- 2 8.0 3.0 14 14
- 1.0524 4 0 cbr 800 ------- 2 8.0 3.0 14 14
+ 1.06 8 4 cbr 800 ------- 2 8.0 3.0 15 16
- 1.06 8 4 cbr 800 ------- 2 8.0 3.0 15 16
r 1.086 2 3 cbr 800 ------- 2 8.0 3.0 11 11
r 1.0936 1 2 cbr 800 ------- 2 8.0 3.0 12 12
+ 1.0936 2 3 cbr 800 ------- 2 8.0 3.0 12 12
- 1.0936 2 3 cbr 800 ------- 2 8.0 3.0 12 12
r 1.10064 1 2 tcp 40 ------- 1 0.0 11.0 0 15
+ 1.10064 2 3 tcp 40 ------- 1 0.0 11.0 0 15
- 1.10064 2 3 tcp 40 ------- 1 0.0 11.0 0 15
r 1.1012 0 1 cbr 800 ------- 2 8.0 3.0 13 13
+ 1.1012 1 2 cbr 800 ------- 2 8.0 3.0 13 13
- 1.1012 1 2 cbr 800 ------- 2 8.0 3.0 13 13
r 1.1088 4 0 cbr 800 ------- 2 8.0 3.0 14 14
+ 1.1088 0 1 cbr 800 ------- 2 8.0 3.0 14 14
- 1.1088 0 1 cbr 800 ------- 2 8.0 3.0 14 14
r 1.1164 8 4 cbr 800 ------- 2 8.0 3.0 15 16
+ 1.1164 4 0 cbr 800 ------- 2 8.0 3.0 15 16
- 1.1164 4 0 cbr 800 ------- 2 8.0 3.0 15 16
+ 1.124 8 4 cbr 800 ------- 2 8.0 3.0 16 17
- 1.124 8 4 cbr 800 ------- 2 8.0 3.0 16 17
r 1.15 2 3 cbr 800 ------- 2 8.0 3.0 12 12
r 1.15096 2 3 tcp 40 ------- 1 0.0 11.0 0 15
+ 1.15096 3 7 tcp 40 ------- 1 0.0 11.0 0 15
- 1.15096 3 7 tcp 40 ------- 1 0.0 11.0 0 15
r 1.1576 1 2 cbr 800 ------- 2 8.0 3.0 13 13
+ 1.1576 2 3 cbr 800 ------- 2 8.0 3.0 13 13
- 1.1576 2 3 cbr 800 ------- 2 8.0 3.0 13 13
r 1.1652 0 1 cbr 800 ------- 2 8.0 3.0 14 14
+ 1.1652 1 2 cbr 800 ------- 2 8.0 3.0 14 14
- 1.1652 1 2 cbr 800 ------- 2 8.0 3.0 14 14
r 1.1728 4 0 cbr 800 ------- 2 8.0 3.0 15 16
+ 1.1728 0 1 cbr 800 ------- 2 8.0 3.0 15 16
- 1.1728 0 1 cbr 800 ------- 2 8.0 3.0 15 16
r 1.1804 8 4 cbr 800 ------- 2 8.0 3.0 16 17
+ 1.1804 4 0 cbr 800 ------- 2 8.0 3.0 16 17
- 1.1804 4 0 cbr 800 ------- 2 8.0 3.0 16 17
+ 1.188 8 4 cbr 800 ------- 2 8.0 3.0 17 18
- 1.188 8 4 cbr 800 ------- 2 8.0 3.0 17 18
r 1.20128 3 7 tcp 40 ------- 1 0.0 11.0 0 15
+ 1.20128 7 11 tcp 40 ------- 1 0.0 11.0 0 15
- 1.20128 7 11 tcp 40 ------- 1 0.0 11.0 0 15
r 1.214 2 3 cbr 800 ------- 2 8.0 3.0 13 13
r 1.2216 1 2 cbr 800 ------- 2 8.0 3.0 14 14
+ 1.2216 2 3 cbr 800 ------- 2 8.0 3.0 14 14
- 1.2216 2 3 cbr 800 ------- 2 8.0 3.0 14 14
r 1.2292 0 1 cbr 800 ------- 2 8.0 3.0 15 16
+ 1.2292 1 2 cbr 800 ------- 2 8.0 3.0 15 16
- 1.2292 1 2 cbr 800 ------- 2 8.0 3.0 15 16
r 1.2368 4 0 cbr 800 ------- 2 8.0 3.0 16 17
+ 1.2368 0 1 cbr 800 ------- 2 8.0 3.0 16 17
- 1.2368 0 1 cbr 800 ------- 2 8.0 3.0 16 17
r 1.2444 8 4 cbr 800 ------- 2 8.0 3.0 17 18
+ 1.2444 4 0 cbr 800 ------- 2 8.0 3.0 17 18
- 1.2444 4 0 cbr 800 ------- 2 8.0 3.0 17 18
r 1.2516 7 11 tcp 40 ------- 1 0.0 11.0 0 15
+ 1.2516 11 7 ack 40 ------- 1 11.0 0.0 0 19
- 1.2516 11 7 ack 40 ------- 1 11.0 0.0 0 19
+ 1.252 8 4 cbr 800 ------- 2 8.0 3.0 18 20
- 1.252 8 4 cbr 800 ------- 2 8.0 3.0 18 20
r 1.278 2 3 cbr 800 ------- 2 8.0 3.0 14 14
r 1.2856 1 2 cbr 800 ------- 2 8.0 3.0 15 16
+ 1.2856 2 3 cbr 800 ------- 2 8.0 3.0 15 16
- 1.2856 2 3 cbr 800 ------- 2 8.0 3.0 15 16
r 1.2932 0 1 cbr 800 ------- 2 8.0 3.0 16 17
+ 1.2932 1 2 cbr 800 ------- 2 8.0 3.0 16 17
- 1.2932 1 2 cbr 800 ------- 2 8.0 3.0 16 17
r 1.3008 4 0 cbr 800 ------- 2 8.0 3.0 17 18
+ 1.3008 0 1 cbr 800 ------- 2 8.0 3.0 17 18
- 1.3008 0 1 cbr 800 ------- 2 8.0 3.0 17 18
r 1.30192 11 7 ack 40 ------- 1 11.0 0.0 0 19
+ 1.30192 7 3 ack 40 ------- 1 11.0 0.0 0 19
- 1.30192 7 3 ack 40 ------- 1 11.0 0.0 0 19
r 1.3084 8 4 cbr 800 ------- 2 8.0 3.0 18 20
+ 1.3084 4 0 cbr 800 ------- 2 8.0 3.0 18 20
- 1.3084 4 0 cbr 800 ------- 2 8.0 3.0 18 20
+ 1.316 8 4 cbr 800 ------- 2 8.0 3.0 19 21
- 1.316 8 4 cbr 800 ------- 2 8.0 3.0 19 21
r 1.342 2 3 cbr 800 ------- 2 8.0 3.0 15 16
r 1.3496 1 2 cbr 800 ------- 2 8.0 3.0 16 17
+ 1.3496 2 3 cbr 800 ------- 2 8.0 3.0 16 17
- 1.3496 2 3 cbr 800 ------- 2 8.0 3.0 16 17
r 1.35224 7 3 ack 40 ------- 1 11.0 0.0 0 19
+ 1.35224 3 2 ack 40 ------- 1 11.0 0.0 0 19
- 1.35224 3 2 ack 40 ------- 1 11.0 0.0 0 19
r 1.3572 0 1 cbr 800 ------- 2 8.0 3.0 17 18
+ 1.3572 1 2 cbr 800 ------- 2 8.0 3.0 17 18
- 1.3572 1 2 cbr 800 ------- 2 8.0 3.0 17 18
r 1.3648 4 0 cbr 800 ------- 2 8.0 3.0 18 20
+ 1.3648 0 1 cbr 800 ------- 2 8.0 3.0 18 20
- 1.3648 0 1 cbr 800 ------- 2 8.0 3.0 18 20
r 1.3724 8 4 cbr 800 ------- 2 8.0 3.0 19 21
+ 1.3724 4 0 cbr 800 ------- 2 8.0 3.0 19 21
- 1.3724 4 0 cbr 800 ------- 2 8.0 3.0 19 21
+ 1.38 8 4 cbr 800 ------- 2 8.0 3.0 20 22
- 1.38 8 4 cbr 800 ------- 2 8.0 3.0 20 22
r 1.40256 3 2 ack 40 ------- 1 11.0 0.0 0 19
+ 1.40256 2 1 ack 40 ------- 1 11.0 0.0 0 19
- 1.40256 2 1 ack 40 ------- 1 11.0 0.0 0 19
r 1.406 2 3 cbr 800 ------- 2 8.0 3.0 16 17
r 1.4136 1 2 cbr 800 ------- 2 8.0 3.0 17 18
+ 1.4136 2 3 cbr 800 ------- 2 8.0 3.0 17 18
- 1.4136 2 3 cbr 800 ------- 2 8.0 3.0 17 18
r 1.4212 0 1 cbr 800 ------- 2 8.0 3.0 18 20
+ 1.4212 1 2 cbr 800 ------- 2 8.0 3.0 18 20
- 1.4212 1 2 cbr 800 ------- 2 8.0 3.0 18 20
r 1.4288 4 0 cbr 800 ------- 2 8.0 3.0 19 21
+ 1.4288 0 1 cbr 800 ------- 2 8.0 3.0 19 21
- 1.4288 0 1 cbr 800 ------- 2 8.0 3.0 19 21
r 1.4364 8 4 cbr 800 ------- 2 8.0 3.0 20 22
+ 1.4364 4 0 cbr 800 ------- 2 8.0 3.0 20 22
- 1.4364 4 0 cbr 800 ------- 2 8.0 3.0 20 22
+ 1.444 8 4 cbr 800 ------- 2 8.0 3.0 21 23
- 1.444 8 4 cbr 800 ------- 2 8.0 3.0 21 23
r 1.45288 2 1 ack 40 ------- 1 11.0 0.0 0 19
+ 1.45288 1 0 ack 40 ------- 1 11.0 0.0 0 19
- 1.45288 1 0 ack 40 ------- 1 11.0 0.0 0 19
r 1.47 2 3 cbr 800 ------- 2 8.0 3.0 17 18
r 1.4776 1 2 cbr 800 ------- 2 8.0 3.0 18 20
+ 1.4776 2 3 cbr 800 ------- 2 8.0 3.0 18 20
- 1.4776 2 3 cbr 800 ------- 2 8.0 3.0 18 20
r 1.4852 0 1 cbr 800 ------- 2 8.0 3.0 19 21
+ 1.4852 1 2 cbr 800 ------- 2 8.0 3.0 19 21
- 1.4852 1 2 cbr 800 ------- 2 8.0 3.0 19 21
r 1.4928 4 0 cbr 800 ------- 2 8.0 3.0 20 22
+ 1.4928 0 1 cbr 800 ------- 2 8.0 3.0 20 22
- 1.4928 0 1 cbr 800 ------- 2 8.0 3.0 20 22
r 1.5004 8 4 cbr 800 ------- 2 8.0 3.0 21 23
+ 1.5004 4 0 cbr 800 ------- 2 8.0 3.0 21 23
- 1.5004 4 0 cbr 800 ------- 2 8.0 3.0 21 23
r 1.5032 1 0 ack 40 ------- 1 11.0 0.0 0 19
+ 1.5032 0 1 tcp 440 ------- 1 0.0 11.0 1 24
- 1.5032 0 1 tcp 440 ------- 1 0.0 11.0 1 24
+ 1.5032 0 1 tcp 440 ------- 1 0.0 11.0 2 25
- 1.50672 0 1 tcp 440 ------- 1 0.0 11.0 2 25
+ 1.508 8 4 cbr 800 ------- 2 8.0 3.0 22 26
- 1.508 8 4 cbr 800 ------- 2 8.0 3.0 22 26
r 1.534 2 3 cbr 800 ------- 2 8.0 3.0 18 20
r 1.5416 1 2 cbr 800 ------- 2 8.0 3.0 19 21
+ 1.5416 2 3 cbr 800 ------- 2 8.0 3.0 19 21
- 1.5416 2 3 cbr 800 ------- 2 8.0 3.0 19 21
r 1.5492 0 1 cbr 800 ------- 2 8.0 3.0 20 22
+ 1.5492 1 2 cbr 800 ------- 2 8.0 3.0 20 22
- 1.5492 1 2 cbr 800 ------- 2 8.0 3.0 20 22
r 1.55672 0 1 tcp 440 ------- 1 0.0 11.0 1 24
+ 1.55672 1 2 tcp 440 ------- 1 0.0 11.0 1 24
- 1.55672 1 2 tcp 440 ------- 1 0.0 11.0 1 24
r 1.5568 4 0 cbr 800 ------- 2 8.0 3.0 21 23
+ 1.5568 0 1 cbr 800 ------- 2 8.0 3.0 21 23
- 1.5568 0 1 cbr 800 ------- 2 8.0 3.0 21 23
r 1.56024 0 1 tcp 440 ------- 1 0.0 11.0 2 25
+ 1.56024 1 2 tcp 440 ------- 1 0.0 11.0 2 25
- 1.56024 1 2 tcp 440 ------- 1 0.0 11.0 2 25
r 1.5644 8 4 cbr 800 ------- 2 8.0 3.0 22 26
+ 1.5644 4 0 cbr 800 ------- 2 8.0 3.0 22 26
- 1.5644 4 0 cbr 800 ------- 2 8.0 3.0 22 26
+ 1.572 8 4 cbr 800 ------- 2 8.0 3.0 23 27
- 1.572 8 4 cbr 800 ------- 2 8.0 3.0 23 27
r 1.598 2 3 cbr 800 ------- 2 8.0 3.0 19 21
r 1.6056 1 2 cbr 800 ------- 2 8.0 3.0 20 22
+ 1.6056 2 3 cbr 800 ------- 2 8.0 3.0 20 22
- 1.6056 2 3 cbr 800 ------- 2 8.0 3.0 20 22
r 1.61024 1 2 tcp 440 ------- 1 0.0 11.0 1 24
+ 1.61024 2 3 tcp 440 ------- 1 0.0 11.0 1 24
- 1.612 2 3 tcp 440 ------- 1 0.0 11.0 1 24
r 1.6132 0 1 cbr 800 ------- 2 8.0 3.0 21 23
+ 1.6132 1 2 cbr 800 ------- 2 8.0 3.0 21 23
- 1.6132 1 2 cbr 800 ------- 2 8.0 3.0 21 23
r 1.61376 1 2 tcp 440 ------- 1 0.0 11.0 2 25
+ 1.61376 2 3 tcp 440 ------- 1 0.0 11.0 2 25
- 1.61552 2 3 tcp 440 ------- 1 0.0 11.0 2 25
r 1.6208 4 0 cbr 800 ------- 2 8.0 3.0 22 26
+ 1.6208 0 1 cbr 800 ------- 2 8.0 3.0 22 26
- 1.6208 0 1 cbr 800 ------- 2 8.0 3.0 22 26
r 1.6284 8 4 cbr 800 ------- 2 8.0 3.0 23 27
+ 1.6284 4 0 cbr 800 ------- 2 8.0 3.0 23 27
- 1.6284 4 0 cbr 800 ------- 2 8.0 3.0 23 27
+ 1.636 8 4 cbr 800 ------- 2 8.0 3.0 24 28
- 1.636 8 4 cbr 800 ------- 2 8.0 3.0 24 28
r 1.662 2 3 cbr 800 ------- 2 8.0 3.0 20 22
r 1.66552 2 3 tcp 440 ------- 1 0.0 11.0 1 24
+ 1.66552 3 7 tcp 440 ------- 1 0.0 11.0 1 24
- 1.66552 3 7 tcp 440 ------- 1 0.0 11.0 1 24
r 1.66904 2 3 tcp 440 ------- 1 0.0 11.0 2 25
+ 1.66904 3 7 tcp 440 ------- 1 0.0 11.0 2 25
- 1.66904 3 7 tcp 440 ------- 1 0.0 11.0 2 25
r 1.6696 1 2 cbr 800 ------- 2 8.0 3.0 21 23
+ 1.6696 2 3 cbr 800 ------- 2 8.0 3.0 21 23
- 1.6696 2 3 cbr 800 ------- 2 8.0 3.0 21 23
r 1.6772 0 1 cbr 800 ------- 2 8.0 3.0 22 26
+ 1.6772 1 2 cbr 800 ------- 2 8.0 3.0 22 26
- 1.6772 1 2 cbr 800 ------- 2 8.0 3.0 22 26
r 1.6848 4 0 cbr 800 ------- 2 8.0 3.0 23 27
+ 1.6848 0 1 cbr 800 ------- 2 8.0 3.0 23 27
- 1.6848 0 1 cbr 800 ------- 2 8.0 3.0 23 27
r 1.6924 8 4 cbr 800 ------- 2 8.0 3.0 24 28
+ 1.6924 4 0 cbr 800 ------- 2 8.0 3.0 24 28
- 1.6924 4 0 cbr 800 ------- 2 8.0 3.0 24 28
+ 1.7 8 4 cbr 800 ------- 2 8.0 3.0 25 29
- 1.7 8 4 cbr 800 ------- 2 8.0 3.0 25 29
r 1.71904 3 7 tcp 440 ------- 1 0.0 11.0 1 24
+ 1.71904 7 11 tcp 440 ------- 1 0.0 11.0 1 24
- 1.71904 7 11 tcp 440 ------- 1 0.0 11.0 1 24
r 1.72256 3 7 tcp 440 ------- 1 0.0 11.0 2 25
+ 1.72256 7 11 tcp 440 ------- 1 0.0 11.0 2 25
- 1.72256 7 11 tcp 440 ------- 1 0.0 11.0 2 25
r 1.726 2 3 cbr 800 ------- 2 8.0 3.0 21 23
r 1.7336 1 2 cbr 800 ------- 2 8.0 3.0 22 26
+ 1.7336 2 3 cbr 800 ------- 2 8.0 3.0 22 26
- 1.7336 2 3 cbr 800 ------- 2 8.0 3.0 22 26
r 1.7412 0 1 cbr 800 ------- 2 8.0 3.0 23 27
+ 1.7412 1 2 cbr 800 ------- 2 8.0 3.0 23 27
- 1.7412 1 2 cbr 800 ------- 2 8.0 3.0 23 27
r 1.7488 4 0 cbr 800 ------- 2 8.0 3.0 24 28
+ 1.7488 0 1 cbr 800 ------- 2 8.0 3.0 24 28
- 1.7488 0 1 cbr 800 ------- 2 8.0 3.0 24 28
r 1.7564 8 4 cbr 800 ------- 2 8.0 3.0 25 29
+ 1.7564 4 0 cbr 800 ------- 2 8.0 3.0 25 29
- 1.7564 4 0 cbr 800 ------- 2 8.0 3.0 25 29
+ 1.764 8 4 cbr 800 ------- 2 8.0 3.0 26 30
- 1.764 8 4 cbr 800 ------- 2 8.0 3.0 26 30
r 1.77256 7 11 tcp 440 ------- 1 0.0 11.0 1 24
+ 1.77256 11 7 ack 40 ------- 1 11.0 0.0 1 31
- 1.77256 11 7 ack 40 ------- 1 11.0 0.0 1 31
r 1.77608 7 11 tcp 440 ------- 1 0.0 11.0 2 25
+ 1.77608 11 7 ack 40 ------- 1 11.0 0.0 2 32
- 1.77608 11 7 ack 40 ------- 1 11.0 0.0 2 32
r 1.79 2 3 cbr 800 ------- 2 8.0 3.0 22 26
r 1.7976 1 2 cbr 800 ------- 2 8.0 3.0 23 27
+ 1.7976 2 3 cbr 800 ------- 2 8.0 3.0 23 27
- 1.7976 2 3 cbr 800 ------- 2 8.0 3.0 23 27
r 1.8052 0 1 cbr 800 ------- 2 8.0 3.0 24 28
+ 1.8052 1 2 cbr 800 ------- 2 8.0 3.0 24 28
- 1.8052 1 2 cbr 800 ------- 2 8.0 3.0 24 28
r 1.8128 4 0 cbr 800 ------- 2 8.0 3.0 25 29
+ 1.8128 0 1 cbr 800 ------- 2 8.0 3.0 25 29
- 1.8128 0 1 cbr 800 ------- 2 8.0 3.0 25 29
r 1.8204 8 4 cbr 800 ------- 2 8.0 3.0 26 30
+ 1.8204 4 0 cbr 800 ------- 2 8.0 3.0 26 30
- 1.8204 4 0 cbr 800 ------- 2 8.0 3.0 26 30
r 1.82288 11 7 ack 40 ------- 1 11.0 0.0 1 31
+ 1.82288 7 3 ack 40 ------- 1 11.0 0.0 1 31
- 1.82288 7 3 ack 40 ------- 1 11.0 0.0 1 31
r 1.8264 11 7 ack 40 ------- 1 11.0 0.0 2 32
+ 1.8264 7 3 ack 40 ------- 1 11.0 0.0 2 32
- 1.8264 7 3 ack 40 ------- 1 11.0 0.0 2 32
+ 1.828 8 4 cbr 800 ------- 2 8.0 3.0 27 33
- 1.828 8 4 cbr 800 ------- 2 8.0 3.0 27 33
r 1.854 2 3 cbr 800 ------- 2 8.0 3.0 23 27
r 1.8616 1 2 cbr 800 ------- 2 8.0 3.0 24 28
+ 1.8616 2 3 cbr 800 ------- 2 8.0 3.0 24 28
- 1.8616 2 3 cbr 800 ------- 2 8.0 3.0 24 28
r 1.8692 0 1 cbr 800 ------- 2 8.0 3.0 25 29
+ 1.8692 1 2 cbr 800 ------- 2 8.0 3.0 25 29
- 1.8692 1 2 cbr 800 ------- 2 8.0 3.0 25 29
r 1.8732 7 3 ack 40 ------- 1 11.0 0.0 1 31
+ 1.8732 3 2 ack 40 ------- 1 11.0 0.0 1 31
- 1.8732 3 2 ack 40 ------- 1 11.0 0.0 1 31
r 1.87672 7 3 ack 40 ------- 1 11.0 0.0 2 32
+ 1.87672 3 2 ack 40 ------- 1 11.0 0.0 2 32
- 1.87672 3 2 ack 40 ------- 1 11.0 0.0 2 32
r 1.8768 4 0 cbr 800 ------- 2 8.0 3.0 26 30
+ 1.8768 0 1 cbr 800 ------- 2 8.0 3.0 26 30
- 1.8768 0 1 cbr 800 ------- 2 8.0 3.0 26 30
r 1.8844 8 4 cbr 800 ------- 2 8.0 3.0 27 33
+ 1.8844 4 0 cbr 800 ------- 2 8.0 3.0 27 33
- 1.8844 4 0 cbr 800 ------- 2 8.0 3.0 27 33
+ 1.892 8 4 cbr 800 ------- 2 8.0 3.0 28 34
- 1.892 8 4 cbr 800 ------- 2 8.0 3.0 28 34
r 1.918 2 3 cbr 800 ------- 2 8.0 3.0 24 28
r 1.92352 3 2 ack 40 ------- 1 11.0 0.0 1 31
+ 1.92352 2 1 ack 40 ------- 1 11.0 0.0 1 31
- 1.92352 2 1 ack 40 ------- 1 11.0 0.0 1 31
r 1.9256 1 2 cbr 800 ------- 2 8.0 3.0 25 29
+ 1.9256 2 3 cbr 800 ------- 2 8.0 3.0 25 29
- 1.9256 2 3 cbr 800 ------- 2 8.0 3.0 25 29
r 1.92704 3 2 ack 40 ------- 1 11.0 0.0 2 32
+ 1.92704 2 1 ack 40 ------- 1 11.0 0.0 2 32
- 1.92704 2 1 ack 40 ------- 1 11.0 0.0 2 32
r 1.9332 0 1 cbr 800 ------- 2 8.0 3.0 26 30
+ 1.9332 1 2 cbr 800 ------- 2 8.0 3.0 26 30
- 1.9332 1 2 cbr 800 ------- 2 8.0 3.0 26 30
r 1.9408 4 0 cbr 800 ------- 2 8.0 3.0 27 33
+ 1.9408 0 1 cbr 800 ------- 2 8.0 3.0 27 33
- 1.9408 0 1 cbr 800 ------- 2 8.0 3.0 27 33
r 1.9484 8 4 cbr 800 ------- 2 8.0 3.0 28 34
+ 1.9484 4 0 cbr 800 ------- 2 8.0 3.0 28 34
- 1.9484 4 0 cbr 800 ------- 2 8.0 3.0 28 34
+ 1.956 8 4 cbr 800 ------- 2 8.0 3.0 29 35
- 1.956 8 4 cbr 800 ------- 2 8.0 3.0 29 35
r 1.97384 2 1 ack 40 ------- 1 11.0 0.0 1 31
+ 1.97384 1 0 ack 40 ------- 1 11.0 0.0 1 31
- 1.97384 1 0 ack 40 ------- 1 11.0 0.0 1 31
r 1.97736 2 1 ack 40 ------- 1 11.0 0.0 2 32
+ 1.97736 1 0 ack 40 ------- 1 11.0 0.0 2 32
- 1.97736 1 0 ack 40 ------- 1 11.0 0.0 2 32
r 1.982 2 3 cbr 800 ------- 2 8.0 3.0 25 29
r 1.9896 1 2 cbr 800 ------- 2 8.0 3.0 26 30
+ 1.9896 2 3 cbr 800 ------- 2 8.0 3.0 26 30
- 1.9896 2 3 cbr 800 ------- 2 8.0 3.0 26 30
r 1.9972 0 1 cbr 800 ------- 2 8.0 3.0 27 33
+ 1.9972 1 2 cbr 800 ------- 2 8.0 3.0 27 33
- 1.9972 1 2 cbr 800 ------- 2 8.0 3.0 27 33
r 2.0048 4 0 cbr 800 ------- 2 8.0 3.0 28 34
+ 2.0048 0 1 cbr 800 ------- 2 8.0 3.0 28 34
- 2.0048 0 1 cbr 800 ------- 2 8.0 3.0 28 34
r 2.0124 8 4 cbr 800 ------- 2 8.0 3.0 29 35
+ 2.0124 4 0 cbr 800 ------- 2 8.0 3.0 29 35
- 2.0124 4 0 cbr 800 ------- 2 8.0 3.0 29 35
+ 2.02 8 4 cbr 800 ------- 2 8.0 3.0 30 36
- 2.02 8 4 cbr 800 ------- 2 8.0 3.0 30 36
r 2.02416 1 0 ack 40 ------- 1 11.0 0.0 1 31
+ 2.02416 0 1 tcp 440 ------- 1 0.0 11.0 3 37
- 2.02416 0 1 tcp 440 ------- 1 0.0 11.0 3 37
+ 2.02416 0 1 tcp 440 ------- 1 0.0 11.0 4 38
r 2.02768 1 0 ack 40 ------- 1 11.0 0.0 2 32
+ 2.02768 0 1 tcp 440 ------- 1 0.0 11.0 5 39
+ 2.02768 0 1 tcp 440 ------- 1 0.0 11.0 6 40
- 2.02768 0 1 tcp 440 ------- 1 0.0 11.0 4 38
- 2.0312 0 1 tcp 440 ------- 1 0.0 11.0 5 39
- 2.03472 0 1 tcp 440 ------- 1 0.0 11.0 6 40
r 2.046 2 3 cbr 800 ------- 2 8.0 3.0 26 30
r 2.0536 1 2 cbr 800 ------- 2 8.0 3.0 27 33
+ 2.0536 2 3 cbr 800 ------- 2 8.0 3.0 27 33
- 2.0536 2 3 cbr 800 ------- 2 8.0 3.0 27 33
r 2.0612 0 1 cbr 800 ------- 2 8.0 3.0 28 34
+ 2.0612 1 2 cbr 800 ------- 2 8.0 3.0 28 34
- 2.0612 1 2 cbr 800 ------- 2 8.0 3.0 28 34
r 2.0688 4 0 cbr 800 ------- 2 8.0 3.0 29 35
+ 2.0688 0 1 cbr 800 ------- 2 8.0 3.0 29 35
- 2.0688 0 1 cbr 800 ------- 2 8.0 3.0 29 35
r 2.0764 8 4 cbr 800 ------- 2 8.0 3.0 30 36
+ 2.0764 4 0 cbr 800 ------- 2 8.0 3.0 30 36
- 2.0764 4 0 cbr 800 ------- 2 8.0 3.0 30 36
r 2.07768 0 1 tcp 440 ------- 1 0.0 11.0 3 37
+ 2.07768 1 2 tcp 440 ------- 1 0.0 11.0 3 37
- 2.07768 1 2 tcp 440 ------- 1 0.0 11.0 3 37
r 2.0812 0 1 tcp 440 ------- 1 0.0 11.0 4 38
+ 2.0812 1 2 tcp 440 ------- 1 0.0 11.0 4 38
- 2.0812 1 2 tcp 440 ------- 1 0.0 11.0 4 38
+ 2.084 8 4 cbr 800 ------- 2 8.0 3.0 31 41
- 2.084 8 4 cbr 800 ------- 2 8.0 3.0 31 41
r 2.08472 0 1 tcp 440 ------- 1 0.0 11.0 5 39
+ 2.08472 1 2 tcp 440 ------- 1 0.0 11.0 5 39
- 2.08472 1 2 tcp 440 ------- 1 0.0 11.0 5 39
r 2.08824 0 1 tcp 440 ------- 1 0.0 11.0 6 40
+ 2.08824 1 2 tcp 440 ------- 1 0.0 11.0 6 40
- 2.08824 1 2 tcp 440 ------- 1 0.0 11.0 6 40
r 2.11 2 3 cbr 800 ------- 2 8.0 3.0 27 33
r 2.1176 1 2 cbr 800 ------- 2 8.0 3.0 28 34
+ 2.1176 2 3 cbr 800 ------- 2 8.0 3.0 28 34
- 2.1176 2 3 cbr 800 ------- 2 8.0 3.0 28 34
r 2.1252 0 1 cbr 800 ------- 2 8.0 3.0 29 35
+ 2.1252 1 2 cbr 800 ------- 2 8.0 3.0 29 35
- 2.1252 1 2 cbr 800 ------- 2 8.0 3.0 29 35
r 2.1312 1 2 tcp 440 ------- 1 0.0 11.0 3 37
+ 2.1312 2 3 tcp 440 ------- 1 0.0 11.0 3 37
- 2.1312 2 3 tcp 440 ------- 1 0.0 11.0 3 37
r 2.1328 4 0 cbr 800 ------- 2 8.0 3.0 30 36
+ 2.1328 0 1 cbr 800 ------- 2 8.0 3.0 30 36
- 2.1328 0 1 cbr 800 ------- 2 8.0 3.0 30 36
r 2.13472 1 2 tcp 440 ------- 1 0.0 11.0 4 38
+ 2.13472 2 3 tcp 440 ------- 1 0.0 11.0 4 38
- 2.13472 2 3 tcp 440 ------- 1 0.0 11.0 4 38
r 2.13824 1 2 tcp 440 ------- 1 0.0 11.0 5 39
+ 2.13824 2 3 tcp 440 ------- 1 0.0 11.0 5 39
- 2.13824 2 3 tcp 440 ------- 1 0.0 11.0 5 39
r 2.1404 8 4 cbr 800 ------- 2 8.0 3.0 31 41
+ 2.1404 4 0 cbr 800 ------- 2 8.0 3.0 31 41
- 2.1404 4 0 cbr 800 ------- 2 8.0 3.0 31 41
r 2.14176 1 2 tcp 440 ------- 1 0.0 11.0 6 40
+ 2.14176 2 3 tcp 440 ------- 1 0.0 11.0 6 40
- 2.14176 2 3 tcp 440 ------- 1 0.0 11.0 6 40
+ 2.148 8 4 cbr 800 ------- 2 8.0 3.0 32 42
- 2.148 8 4 cbr 800 ------- 2 8.0 3.0 32 42
r 2.174 2 3 cbr 800 ------- 2 8.0 3.0 28 34
r 2.1816 1 2 cbr 800 ------- 2 8.0 3.0 29 35
+ 2.1816 2 3 cbr 800 ------- 2 8.0 3.0 29 35
- 2.1816 2 3 cbr 800 ------- 2 8.0 3.0 29 35
r 2.18472 2 3 tcp 440 ------- 1 0.0 11.0 3 37
+ 2.18472 3 7 tcp 440 ------- 1 0.0 11.0 3 37
- 2.18472 3 7 tcp 440 ------- 1 0.0 11.0 3 37
r 2.18824 2 3 tcp 440 ------- 1 0.0 11.0 4 38
+ 2.18824 3 7 tcp 440 ------- 1 0.0 11.0 4 38
- 2.18824 3 7 tcp 440 ------- 1 0.0 11.0 4 38
r 2.1892 0 1 cbr 800 ------- 2 8.0 3.0 30 36
+ 2.1892 1 2 cbr 800 ------- 2 8.0 3.0 30 36
- 2.1892 1 2 cbr 800 ------- 2 8.0 3.0 30 36
r 2.19176 2 3 tcp 440 ------- 1 0.0 11.0 5 39
+ 2.19176 3 7 tcp 440 ------- 1 0.0 11.0 5 39
- 2.19176 3 7 tcp 440 ------- 1 0.0 11.0 5 39
r 2.19528 2 3 tcp 440 ------- 1 0.0 11.0 6 40
+ 2.19528 3 7 tcp 440 ------- 1 0.0 11.0 6 40
- 2.19528 3 7 tcp 440 ------- 1 0.0 11.0 6 40
r 2.1968 4 0 cbr 800 ------- 2 8.0 3.0 31 41
+ 2.1968 0 1 cbr 800 ------- 2 8.0 3.0 31 41
- 2.1968 0 1 cbr 800 ------- 2 8.0 3.0 31 41
r 2.2044 8 4 cbr 800 ------- 2 8.0 3.0 32 42
+ 2.2044 4 0 cbr 800 ------- 2 8.0 3.0 32 42
- 2.2044 4 0 cbr 800 ------- 2 8.0 3.0 32 42
+ 2.212 8 4 cbr 800 ------- 2 8.0 3.0 33 43
- 2.212 8 4 cbr 800 ------- 2 8.0 3.0 33 43
r 2.238 2 3 cbr 800 ------- 2 8.0 3.0 29 35
r 2.23824 3 7 tcp 440 ------- 1 0.0 11.0 3 37
+ 2.23824 7 11 tcp 440 ------- 1 0.0 11.0 3 37
- 2.23824 7 11 tcp 440 ------- 1 0.0 11.0 3 37
r 2.24176 3 7 tcp 440 ------- 1 0.0 11.0 4 38
+ 2.24176 7 11 tcp 440 ------- 1 0.0 11.0 4 38
- 2.24176 7 11 tcp 440 ------- 1 0.0 11.0 4 38
r 2.24528 3 7 tcp 440 ------- 1 0.0 11.0 5 39
+ 2.24528 7 11 tcp 440 ------- 1 0.0 11.0 5 39
- 2.24528 7 11 tcp 440 ------- 1 0.0 11.0 5 39
r 2.2456 1 2 cbr 800 ------- 2 8.0 3.0 30 36
+ 2.2456 2 3 cbr 800 ------- 2 8.0 3.0 30 36
- 2.2456 2 3 cbr 800 ------- 2 8.0 3.0 30 36
r 2.2488 3 7 tcp 440 ------- 1 0.0 11.0 6 40
+ 2.2488 7 11 tcp 440 ------- 1 0.0 11.0 6 40
- 2.2488 7 11 tcp 440 ------- 1 0.0 11.0 6 40
r 2.2532 0 1 cbr 800 ------- 2 8.0 3.0 31 41
+ 2.2532 1 2 cbr 800 ------- 2 8.0 3.0 31 41
- 2.2532 1 2 cbr 800 ------- 2 8.0 3.0 31 41
r 2.2608 4 0 cbr 800 ------- 2 8.0 3.0 32 42
+ 2.2608 0 1 cbr 800 ------- 2 8.0 3.0 32 42
- 2.2608 0 1 cbr 800 ------- 2 8.0 3.0 32 42
r 2.2684 8 4 cbr 800 ------- 2 8.0 3.0 33 43
+ 2.2684 4 0 cbr 800 ------- 2 8.0 3.0 33 43
- 2.2684 4 0 cbr 800 ------- 2 8.0 3.0 33 43
+ 2.276 8 4 cbr 800 ------- 2 8.0 3.0 34 44
- 2.276 8 4 cbr 800 ------- 2 8.0 3.0 34 44
r 2.29176 7 11 tcp 440 ------- 1 0.0 11.0 3 37
+ 2.29176 11 7 ack 40 ------- 1 11.0 0.0 3 45
- 2.29176 11 7 ack 40 ------- 1 11.0 0.0 3 45
r 2.29528 7 11 tcp 440 ------- 1 0.0 11.0 4 38
+ 2.29528 11 7 ack 40 ------- 1 11.0 0.0 4 46
- 2.29528 11 7 ack 40 ------- 1 11.0 0.0 4 46
r 2.2988 7 11 tcp 440 ------- 1 0.0 11.0 5 39
+ 2.2988 11 7 ack 40 ------- 1 11.0 0.0 5 47
- 2.2988 11 7 ack 40 ------- 1 11.0 0.0 5 47
r 2.302 2 3 cbr 800 ------- 2 8.0 3.0 30 36
r 2.30232 7 11 tcp 440 ------- 1 0.0 11.0 6 40
+ 2.30232 11 7 ack 40 ------- 1 11.0 0.0 6 48
- 2.30232 11 7 ack 40 ------- 1 11.0 0.0 6 48
r 2.3096 1 2 cbr 800 ------- 2 8.0 3.0 31 41
+ 2.3096 2 3 cbr 800 ------- 2 8.0 3.0 31 41
- 2.3096 2 3 cbr 800 ------- 2 8.0 3.0 31 41
r 2.3172 0 1 cbr 800 ------- 2 8.0 3.0 32 42
+ 2.3172 1 2 cbr 800 ------- 2 8.0 3.0 32 42
- 2.3172 1 2 cbr 800 ------- 2 8.0 3.0 32 42
r 2.3248 4 0 cbr 800 ------- 2 8.0 3.0 33 43
+ 2.3248 0 1 cbr 800 ------- 2 8.0 3.0 33 43
- 2.3248 0 1 cbr 800 ------- 2 8.0 3.0 33 43
r 2.3324 8 4 cbr 800 ------- 2 8.0 3.0 34 44
+ 2.3324 4 0 cbr 800 ------- 2 8.0 3.0 34 44
- 2.3324 4 0 cbr 800 ------- 2 8.0 3.0 34 44
+ 2.34 8 4 cbr 800 ------- 2 8.0 3.0 35 49
- 2.34 8 4 cbr 800 ------- 2 8.0 3.0 35 49
r 2.34208 11 7 ack 40 ------- 1 11.0 0.0 3 45
+ 2.34208 7 3 ack 40 ------- 1 11.0 0.0 3 45
- 2.34208 7 3 ack 40 ------- 1 11.0 0.0 3 45
r 2.3456 11 7 ack 40 ------- 1 11.0 0.0 4 46
+ 2.3456 7 3 ack 40 ------- 1 11.0 0.0 4 46
- 2.3456 7 3 ack 40 ------- 1 11.0 0.0 4 46
r 2.34912 11 7 ack 40 ------- 1 11.0 0.0 5 47
+ 2.34912 7 3 ack 40 ------- 1 11.0 0.0 5 47
- 2.34912 7 3 ack 40 ------- 1 11.0 0.0 5 47
r 2.35264 11 7 ack 40 ------- 1 11.0 0.0 6 48
+ 2.35264 7 3 ack 40 ------- 1 11.0 0.0 6 48